version 3
run General-0-20240311-17:14:34-41090
attr configname General
attr datetime 20240311-17:14:34
attr datetimef 20240311-171434
attr experiment General
attr inifile omnetpp.ini
attr iterationvars ""
attr iterationvarsd ""
attr iterationvarsf ""
attr measurement ""
attr network src.NED.Network
attr processid 41090
attr repetition 0
attr replication #0
attr resultdir results
attr runnumber 0
attr seedset 0
config image-path ../../../Thesis_CODE/Omnet/inet/images
config network src.NED.Network
config scheduler-class UDPsocketRTScheduler
config description "Connection with ArduSim"
config **.rt.module-eventlog-recording false
config **.host[*].mobility.module-eventlog-recording false
config **.numUAVs 2
config *.host*.ipv4.arp.typename GlobalArp
config *.host[*].numApps 1
config *.host[*].app[0].typename DroneApp
config *.radioMedium.typename Ieee80211DimensionalRadioMedium
config *.radioMedium.backgroundNoise.power -90dBm
config **.wlan[0].radio.typename Ieee80211DimensionalRadio
config *.host[*].wlan[*].radio.transmitter.power 20mW
config **.wlan[0].mac.typename Ieee80211Mac
config **.wlan[0].mgmtType.typename Ieee80211MgmtAdhoc
config **.wlan[0].opMode "\"p\""
config **.radioMedium.pathLoss.typename FreeSpacePathLoss
config **.radioMedium.obstacleLoss.typename DielectricObstacleLoss
config **.physicalEnvironment.config "xmldoc(\"Val_Ob.xml\")"
config **.visualizer.canvasVisualizer.sceneVisualizer.viewAngle "\"isometric\""
config *.host[*].mobility.typename LinearMobility
config *.host[*].mobility.initFromDisplayString false
config *.host[*].mobility.initialX 0m
config *.host[*].mobility.initialY 0m

vector 0 Network.host[0].wlan[0].mac.dcf frameSequenceActive:vector ETV
attr autoWarmupFilter false
attr interpolationmode sample-hold
attr recordingmode vector
attr source warmup(count(frameSequenceStarted)-count(frameSequenceFinished))
attr title "frame sequence active"
vector 1 Network.host[0].wlan[0].mac.dcf.channelAccess.pendingQueue queueLength:vector ETV
attr autoWarmupFilter false
attr interpolationmode sample-hold
attr recordingmode vector
attr source "warmup(atomic(constant0(packetPushEnded) + count(packetPushStarted) - count(packetPulled) - count(packetRemoved) - count(packetDropped)))"
attr title "queue length"
attr unit pk
vector 2 Network.host[0].wlan[0].mac.dcf.channelAccess.pendingQueue queueBitLength:vector ETV
attr autoWarmupFilter false
attr interpolationmode sample-hold
attr recordingmode vector
attr source "warmup(atomic(constant0(packetPushEnded) + sum(packetLength(packetPushStarted)) - sum(packetLength(packetPulled)) - sum(packetLength(packetRemoved)) - sum(packetLength(packetDropped))))"
attr title "queue bit length"
attr unit b
vector 3 Network.host[0].wlan[0].mac.dcf.channelAccess.inProgressFrames queueLength:vector ETV
attr autoWarmupFilter false
attr interpolationmode sample-hold
attr recordingmode vector
attr source "warmup(count(packetEnqueued) - count(packetDequeued))"
attr title "queue length"
vector 4 Network.host[0].wlan[0].mac.dcf.channelAccess.contention backoffActive:vector ETV
attr autoWarmupFilter false
attr interpolationmode sample-hold
attr recordingmode vector
attr source warmup(count(backoffStarted)-count(backoffStopped))
attr title "backoff active"
vector 5 Network.host[0].udp passedUpPk:vector(count) ETV
attr interpolationmode none
attr recordingmode vector(count)
attr source packetSentToUpper
attr title "packets passed up, count"
vector 6 Network.host[0].udp droppedPkWrongPort:vector(count) ETV
attr interpolationmode none
attr recordingmode vector(count)
attr source packetDropReasonIsNoPortFound(packetDropped)
attr title "packets dropped (wrong port), count"
vector 7 Network.host[0].udp droppedPkBadChecksum:vector(count) ETV
attr interpolationmode none
attr recordingmode vector(count)
attr source packetDropReasonIsIncorrectlyReceived(packetDropped)
attr title "packets dropped (checksum error), count"
vector 8 Network.host[1].wlan[0].mac.dcf frameSequenceActive:vector ETV
attr autoWarmupFilter false
attr interpolationmode sample-hold
attr recordingmode vector
attr source warmup(count(frameSequenceStarted)-count(frameSequenceFinished))
attr title "frame sequence active"
vector 9 Network.host[1].wlan[0].mac.dcf.channelAccess.pendingQueue queueLength:vector ETV
attr autoWarmupFilter false
attr interpolationmode sample-hold
attr recordingmode vector
attr source "warmup(atomic(constant0(packetPushEnded) + count(packetPushStarted) - count(packetPulled) - count(packetRemoved) - count(packetDropped)))"
attr title "queue length"
attr unit pk
vector 10 Network.host[1].wlan[0].mac.dcf.channelAccess.pendingQueue queueBitLength:vector ETV
attr autoWarmupFilter false
attr interpolationmode sample-hold
attr recordingmode vector
attr source "warmup(atomic(constant0(packetPushEnded) + sum(packetLength(packetPushStarted)) - sum(packetLength(packetPulled)) - sum(packetLength(packetRemoved)) - sum(packetLength(packetDropped))))"
attr title "queue bit length"
attr unit b
vector 11 Network.host[1].wlan[0].mac.dcf.channelAccess.inProgressFrames queueLength:vector ETV
attr autoWarmupFilter false
attr interpolationmode sample-hold
attr recordingmode vector
attr source "warmup(count(packetEnqueued) - count(packetDequeued))"
attr title "queue length"
vector 12 Network.host[1].wlan[0].mac.dcf.channelAccess.contention backoffActive:vector ETV
attr autoWarmupFilter false
attr interpolationmode sample-hold
attr recordingmode vector
attr source warmup(count(backoffStarted)-count(backoffStopped))
attr title "backoff active"
vector 13 Network.host[1].udp passedUpPk:vector(count) ETV
attr interpolationmode none
attr recordingmode vector(count)
attr source packetSentToUpper
attr title "packets passed up, count"
vector 14 Network.host[1].udp droppedPkWrongPort:vector(count) ETV
attr interpolationmode none
attr recordingmode vector(count)
attr source packetDropReasonIsNoPortFound(packetDropped)
attr title "packets dropped (wrong port), count"
vector 15 Network.host[1].udp droppedPkBadChecksum:vector(count) ETV
attr interpolationmode none
attr recordingmode vector(count)
attr source packetDropReasonIsIncorrectlyReceived(packetDropped)
attr title "packets dropped (checksum error), count"
vector 16 Network.host[0].wlan[0].radio radioMode:vector ETV
attr interpolationmode sample-hold
attr recordingmode vector
attr source radioModeChanged
attr title "Radio mode"
vector 17 Network.host[0].wlan[0].radio radioChannel:vector ETV
attr interpolationmode sample-hold
attr recordingmode vector
attr source radioChannelChanged
attr title "Radio channel"
vector 18 Network.host[1].wlan[0].radio radioMode:vector ETV
attr interpolationmode sample-hold
attr recordingmode vector
attr source radioModeChanged
attr title "Radio mode"
vector 19 Network.host[1].wlan[0].radio radioChannel:vector ETV
attr interpolationmode sample-hold
attr recordingmode vector
attr source radioChannelChanged
attr title "Radio channel"
vector 20 Network.host[0].wlan[0].radio receptionState:vector ETV
attr interpolationmode sample-hold
attr recordingmode vector
attr source receptionStateChanged
attr title "Radio reception state"
vector 21 Network.host[0].wlan[0].mac.dcf.channelAccess.contention stateChanged:vector ETV
attr enum IDLE,DEFER,IFS_AND_BACKOFF
attr interpolationmode none
attr recordingmode vector
attr title "contention state changed"
attr type enum
vector 22 Network.host[1].wlan[0].radio receptionState:vector ETV
attr interpolationmode sample-hold
attr recordingmode vector
attr source receptionStateChanged
attr title "Radio reception state"
vector 23 Network.host[1].wlan[0].mac.dcf.channelAccess.contention stateChanged:vector ETV
attr enum IDLE,DEFER,IFS_AND_BACKOFF
attr interpolationmode none
attr recordingmode vector
attr title "contention state changed"
attr type enum
vector 24 Network.host[0].wlan[0].mac.dcf.recoveryProcedure contentionWindowChanged:vector ETV
attr interpolationmode sample-hold
attr recordingmode vector
attr title "contention window"
vector 25 Network.host[1].wlan[0].mac.dcf.recoveryProcedure contentionWindowChanged:vector ETV
attr interpolationmode sample-hold
attr recordingmode vector
attr title "contention window"
vector 26 Network.host[0].udp packetSent:vector(packetBytes) ETV
attr interpolationmode none
attr recordingmode vector(packetBytes)
attr source packetSent
attr title "packets sent, packetBytes"
vector 27 Network.host[0].lo[0].lo rcvdPkFromHl:vector(packetBytes) ETV
attr interpolationmode none
attr recordingmode vector(packetBytes)
attr source packetReceivedFromUpper
attr title "packets received from higher layer, packetBytes"
vector 28 Network.host[0].lo[0].lo passedUpPk:vector(packetBytes) ETV
attr interpolationmode none
attr recordingmode vector(packetBytes)
attr source packetSentToUpper
attr title "packets passed to higher layer, packetBytes"
vector 29 Network.host[0].wlan[0].mac packetReceivedFromUpper:vector(packetBytes) ETV
attr interpolationmode none
attr recordingmode vector(packetBytes)
attr title "packets received from upper layer, packetBytes"
vector 30 Network.host[0].wlan[0].mac.dcf.channelAccess.pendingQueue incomingPacketLengths:vector ETV
attr interpolationmode none
attr recordingmode vector
attr source packetLength(packetPushStarted)
attr title "incoming packet lengths"
attr unit b
vector 31 Network.host[0].wlan[0].mac.dcf.channelAccess.pendingQueue incomingDataRate:vector ETV
attr interpolationmode linear
attr recordingmode vector
attr source throughput(packetPushStarted)
attr title "incoming datarate"
attr unit bps
vector 32 Network.host[0].wlan[0].mac.dcf.channelAccess.contention backoffPeriodGenerated:vector ETV
attr interpolationmode none
attr recordingmode vector
attr title "backoff periods"
vector 33 Network.host[0].udp packetReceived:vector(packetBytes) ETV
attr interpolationmode none
attr recordingmode vector(packetBytes)
attr source packetReceived
attr title "packets received, packetBytes"
vector 34 Network.host[0].wlan[0].mac.dcf.channelAccess.pendingQueue queueingTime:vector ETV
attr interpolationmode none
attr recordingmode vector
attr source queueingTime(packetPulled)
attr title "queueing times"
attr unit s
vector 35 Network.host[0].wlan[0].mac.dcf.channelAccess.pendingQueue outgoingPacketLengths:vector ETV
attr interpolationmode none
attr recordingmode vector
attr source packetLength(packetPulled)
attr title "outgoing packet lengths"
attr unit b
vector 36 Network.host[0].wlan[0].mac.dcf.channelAccess.pendingQueue outgoingDataRate:vector ETV
attr interpolationmode linear
attr recordingmode vector
attr source throughput(packetPulled)
attr title "outgoing datarate"
attr unit bps
vector 37 Network.host[0].wlan[0].mac.dcf datarateSelected:vector ETV
attr interpolationmode none
attr recordingmode vector
attr title "datarates selected"
vector 38 Network.host[0].wlan[0].mac packetSentToLower:vector(packetBytes) ETV
attr interpolationmode none
attr recordingmode vector(packetBytes)
attr title "packets sent to lower layer, packetBytes"
vector 39 Network.host[0].wlan[0].radio transmissionState:vector ETV
attr interpolationmode sample-hold
attr recordingmode vector
attr source transmissionStateChanged
attr title "Radio transmission state"
vector 40 Network.host[0].wlan[0].mac.dcf packetSentToPeer:vector(packetBytes) ETV
attr interpolationmode none
attr recordingmode vector(packetBytes)
attr title "packets sent, packetBytes"
vector 41 Network.host[0].wlan[0].mac.dcf packetSentToPeerMulticast:vector(packetBytes) ETV
attr interpolationmode none
attr recordingmode vector(packetBytes)
attr source ieee80211Multicast(packetSentToPeer)
attr title "packets sent: multicast, packetBytes"
vector 42 Network.host[0].wlan[0].mac.dcf packetSentToPeerWithoutRetry:vector(packetBytes) ETV
attr interpolationmode none
attr recordingmode vector(packetBytes)
attr source ieee80211NotRetry(packetSentToPeer)
attr title "packets sent: without retry, packetBytes"
vector 43 Network.host[0].wlan[0].mac.dcf.channelAccess.inProgressFrames queueingTime:vector ETV
attr interpolationmode none
attr recordingmode vector
attr source queueingTime(packetDequeued)
attr title "queueing times"
vector 44 Network.host[1].wlan[0].mac packetReceivedFromLower:vector(packetBytes) ETV
attr interpolationmode none
attr recordingmode vector(packetBytes)
attr title "packets received from lower layer, packetBytes"
vector 45 Network.host[1].wlan[0].mac.dcf packetReceivedFromPeer:vector(packetBytes) ETV
attr interpolationmode none
attr recordingmode vector(packetBytes)
attr title "packets received, packetBytes"
vector 46 Network.host[1].wlan[0].mac.dcf packetReceivedFromPeerMulticast:vector(packetBytes) ETV
attr interpolationmode none
attr recordingmode vector(packetBytes)
attr source ieee80211Multicast(packetReceivedFromPeer)
attr title "packets received: multicast, packetBytes"
vector 47 Network.host[1].wlan[0].mac.dcf packetReceivedFromPeerWithoutRetry:vector(packetBytes) ETV
attr interpolationmode none
attr recordingmode vector(packetBytes)
attr source ieee80211NotRetry(packetReceivedFromPeer)
attr title "packets received: without retry, packetBytes"
vector 48 Network.host[1].wlan[0].mac packetSentToUpper:vector(packetBytes) ETV
attr interpolationmode none
attr recordingmode vector(packetBytes)
attr title "packets sent to upper layer, packetBytes"
vector 49 Network.host[1].udp packetReceived:vector(packetBytes) ETV
attr interpolationmode none
attr recordingmode vector(packetBytes)
attr source packetReceived
attr title "packets received, packetBytes"
vector 50 Network.host[1].wlan[0].mac packetDrop:vector(packetBytes) ETV
attr interpolationmode none
attr recordingmode vector(packetBytes)
attr source packetDropped
attr title "packet drops, packetBytes"
vector 51 Network.host[1].wlan[0].mac packetDropIncorrectlyReceived:vector(packetBytes) ETV
attr interpolationmode none
attr recordingmode vector(packetBytes)
attr source packetDropReasonIsIncorrectlyReceived(packetDropped)
attr title "packet drops: incorrectly received, packetBytes"
vector 52 Network.host[0].wlan[0].mac.dcf.channelAccess.pendingQueue flowOutgoingDataRate:vector ETV
attr interpolationmode linear
attr recordingmode vector
attr source throughput(flowPacketLength(demuxFlow(packetPulled)))
attr title "flow specific outgoing data rate"
attr unit bps
vector 53 Network.host[0].wlan[0].mac.dcf.channelAccess.pendingQueue flowIncomingDataRate:vector ETV
attr interpolationmode linear
attr recordingmode vector
attr source throughput(flowPacketLength(demuxFlow(packetPushStarted)))
attr title "flow specific incoming data rate"
attr unit bps
vector 54 Network.host[0].app[0] throughput:vector ETV
attr recordingmode vector
attr source throughput(packetReceived)
attr title throughput
attr unit bps
vector 55 Network.host[1].wlan[0].mac.dcf.channelAccess.pendingQueue outgoingDataRate:vector ETV
attr interpolationmode linear
attr recordingmode vector
attr source throughput(packetPulled)
attr title "outgoing datarate"
attr unit bps
vector 56 Network.host[1].wlan[0].mac.dcf.channelAccess.pendingQueue flowOutgoingDataRate:vector ETV
attr interpolationmode linear
attr recordingmode vector
attr source throughput(flowPacketLength(demuxFlow(packetPulled)))
attr title "flow specific outgoing data rate"
attr unit bps
vector 57 Network.host[1].wlan[0].mac.dcf.channelAccess.pendingQueue incomingDataRate:vector ETV
attr interpolationmode linear
attr recordingmode vector
attr source throughput(packetPushStarted)
attr title "incoming datarate"
attr unit bps
vector 58 Network.host[1].wlan[0].mac.dcf.channelAccess.pendingQueue flowIncomingDataRate:vector ETV
attr interpolationmode linear
attr recordingmode vector
attr source throughput(flowPacketLength(demuxFlow(packetPushStarted)))
attr title "flow specific incoming data rate"
attr unit bps
vector 59 Network.host[1].app[0] throughput:vector ETV
attr recordingmode vector
attr source throughput(packetReceived)
attr title throughput
attr unit bps
0	0	0	0
0	0	0	0
0	235	2.63	1
0	239	2.630752	0
0	343	3.34	1
0	347	3.340752	0
0	398	3.6	1
0	402	3.600752	0
0	448	3.83	1
0	452	3.830752	0
0	499	4.07	1
0	503	4.070752	0
0	551	4.3	1
0	555	4.300752	0
0	602	4.54	1
0	606	4.540752	0
0	657	4.8	1
0	661	4.800752	0
0	708	5.04	1
0	712	5.040752	0
0	758	5.27	1
0	762	5.270752	0
0	810	5.5	1
0	814	5.500752	0
0	861	5.74	1
0	865	5.740752	0
0	917	6.01	1
0	921	6.010752	0
0	967	6.24	1
0	971	6.240752	0
0	1018	6.48	1
0	1022	6.480752	0
0	1070	6.71	1
0	1074	6.710752	0
0	1121	6.95	1
0	1125	6.950752	0
0	1177	7.22	1
0	1181	7.220752	0
0	1227	7.45	1
0	1231	7.450752	0
0	1277	7.68	1
0	1281	7.680752	0
0	1329	7.91	1
0	1333	7.910752	0
0	1380	8.15	1
0	1384	8.150752	0
0	1436	8.42	1
0	1440	8.420752	0
0	1486	8.65	1
0	1490	8.650752	0
0	1537	8.89	1
0	1541	8.890752	0
0	1589	9.12	1
0	1593	9.120752	0
0	1643	9.39	1
0	1647	9.390752	0
0	1695	9.62	1
0	1699	9.620752	0
0	1746	9.86	1
0	1750	9.860752	0
0	1796	10.09	1
0	1800	10.090752	0
0	1849	10.33	1
0	1853	10.330752	0
0	1902	10.59	1
0	1906	10.590752	0
0	1954	10.82	1
0	1958	10.820752	0
0	2005	11.06	1
0	2009	11.060752	0
0	2058	11.3	1
0	2062	11.300752	0
0	2108	11.53	1
0	2112	11.530752	0
0	2164	11.8	1
0	2168	11.800752	0
0	2214	12.03	1
0	2218	12.030752	0
0	2265	12.27	1
0	2269	12.270752	0
0	2317	12.5	1
0	2321	12.500752	0
0	2368	12.74	1
0	2372	12.740752	0
0	2423	13	1
0	2427	13.000752	0
0	2474	13.24	1
0	2478	13.240752	0
0	2524	13.47	1
0	2528	13.470752	0
0	2576	13.7	1
0	2580	13.700752	0
0	2627	13.94	1
0	2631	13.940752	0
0	2683	14.21	1
0	2687	14.210752	0
0	2733	14.44	1
0	2737	14.440752	0
0	2784	14.68	1
0	2788	14.680752	0
0	2836	14.91	1
0	2840	14.910752	0
0	2886	15.14	1
0	2890	15.140752	0
0	2942	15.41	1
0	2946	15.410752	0
0	2993	15.65	1
0	2997	15.650752	0
0	3043	15.88	1
0	3047	15.880752	0
0	3095	16.11	1
0	3099	16.110752	0
0	3146	16.35	1
0	3150	16.350752	0
0	3201	16.61	1
0	3205	16.610752	0
0	3252	16.85	1
0	3256	16.850752	0
0	3302	17.08	1
0	3306	17.080752	0
0	3355	17.32	1
0	3359	17.320752	0
0	3406	17.56	1
0	3410	17.560752	0
0	3461	17.82	1
0	3465	17.820752	0
0	3511	18.05	1
0	3515	18.050752	0
0	3562	18.29	1
0	3566	18.290752	0
0	3614	18.52	1
0	3618	18.520752	0
0	3661	18.76	1
0	3665	18.760752	0
0	3717	19.03	1
0	3721	19.030752	0
0	3767	19.26	1
0	3771	19.260752	0
0	3817	19.49	1
0	3821	19.490752	0
0	3870	19.73	1
0	3874	19.730752	0
0	3920	19.96	1
0	3924	19.960752	0
0	3976	20.23	1
0	3980	20.230752	0
0	4027	20.47	1
0	4031	20.470752	0
0	4075	20.7	1
0	4079	20.700752	0
0	4125	20.93	1
0	4129	20.930752	0
0	4176	21.17	1
0	4180	21.170752	0
0	4232	21.44	1
0	4236	21.440752	0
0	4282	21.67	1
0	4286	21.670752	0
0	4334	21.9	1
0	4338	21.900752	0
0	4385	22.14	1
0	4389	22.140752	0
0	4436	22.38	1
0	4440	22.380752	0
0	4492	22.65	1
0	4496	22.650752	0
0	4542	22.88	1
0	4546	22.880752	0
0	4594	23.11	1
0	4598	23.110752	0
0	4644	23.34	1
0	4648	23.340752	0
0	4695	23.58	1
0	4699	23.580752	0
0	4750	23.84	1
0	4754	23.840752	0
0	4801	24.08	1
0	4805	24.080752	0
0	4854	24.32	1
0	4858	24.320752	0
0	4900	24.55	1
0	4904	24.550752	0
0	4951	24.79	1
0	4955	24.790752	0
0	5006	25.05	1
0	5010	25.050752	0
0	5057	25.29	1
0	5061	25.290752	0
0	5109	25.52	1
0	5113	25.520752	0
0	5160	25.76	1
0	5164	25.760752	0
0	5215	26.02	1
0	5219	26.020752	0
0	5266	26.26	1
0	5270	26.260752	0
0	5316	26.49	1
0	5320	26.490752	0
0	5369	26.73	1
0	5373	26.730752	0
0	5419	26.96	1
0	5423	26.960752	0
0	5475	27.23	1
0	5479	27.230752	0
0	5526	27.47	1
0	5530	27.470752	0
0	5578	27.7	1
0	5582	27.700752	0
0	5628	27.93	1
0	5632	27.930752	0
0	5679	28.17	1
0	5683	28.170752	0
0	5735	28.44	1
0	5739	28.440752	0
0	5785	28.67	1
0	5789	28.670752	0
0	5837	28.9	1
0	5841	28.900752	0
0	5887	29.13	1
0	5891	29.130752	0
0	5938	29.37	1
0	5942	29.370752	0
0	5993	29.63	1
0	5997	29.630752	0
0	6044	29.87	1
0	6048	29.870752	0
0	6097	30.11	1
0	6101	30.110752	0
0	6148	30.35	1
0	6152	30.350752	0
0	6198	30.58	1
0	6202	30.580752	0
0	6254	30.85	1
0	6258	30.850752	0
0	6304	31.08	1
0	6308	31.080752	0
0	6357	31.32	1
0	6361	31.320752	0
0	6407	31.55	1
0	6411	31.550752	0
0	6457	31.78	1
0	6461	31.780752	0
0	6512	32.04	1
0	6516	32.040752	0
0	6562	32.27	1
0	6566	32.270752	0
0	6615	32.51	1
0	6619	32.510752	0
0	6666	32.75	1
0	6670	32.750752	0
0	6717	32.99	1
0	6721	32.990752	0
0	6773	33.26	1
0	6777	33.260752	0
0	6826	33.5	1
0	6830	33.500752	0
0	6876	33.73	1
0	6880	33.730752	0
0	6927	33.97	1
0	6931	33.970752	0
0	6979	34.2	1
0	6983	34.200752	0
0	7033	34.47	1
0	7037	34.470752	0
0	7085	34.7	1
0	7089	34.700752	0
0	7135	34.93	1
0	7139	34.930752	0
0	7185	35.16	1
0	7189	35.160752	0
0	7238	35.4	1
0	7242	35.400752	0
0	7291	35.66	1
0	7295	35.660752	0
0	7344	35.9	1
0	7348	35.900752	0
0	7395	36.14	1
0	7399	36.140752	0
0	7446	36.38	1
0	7450	36.380752	0
0	7499	36.62	1
0	7503	36.620752	0
0	7552	36.88	1
0	7556	36.880752	0
0	7604	37.11	1
0	7608	37.110752	0
0	7654	37.34	1
0	7658	37.340752	0
0	7705	37.58	1
0	7709	37.580752	0
0	7757	37.81	1
0	7761	37.810752	0
0	7811	38.08	1
0	7815	38.080752	0
0	7863	38.31	1
0	7867	38.310752	0
0	7914	38.55	1
0	7918	38.550752	0
0	7965	38.79	1
0	7969	38.790752	0
0	8017	39.02	1
0	8021	39.020752	0
0	8071	39.29	1
0	8075	39.290752	0
0	8123	39.52	1
0	8127	39.520752	0
0	8173	39.75	1
0	8177	39.750752	0
0	8224	39.99	1
0	8228	39.990752	0
0	8276	40.22	1
0	8280	40.220752	0
0	8330	40.49	1
0	8334	40.490752	0
0	8383	40.73	1
0	8387	40.730752	0
0	8433	40.96	1
0	8437	40.960752	0
0	8486	41.2	1
0	8490	41.200752	0
0	8536	41.43	1
0	8540	41.430752	0
0	8589	41.69	1
0	8593	41.690752	0
0	8642	41.93	1
0	8646	41.930752	0
0	8692	42.16	1
0	8696	42.160752	0
0	8741	42.4	1
0	8745	42.400752	0
0	8795	42.67	1
0	8799	42.670752	0
0	8848	42.91	1
0	8852	42.910752	0
0	8898	43.14	1
0	8902	43.140752	0
0	8949	43.38	1
0	8953	43.380752	0
0	9001	43.61	1
0	9005	43.610752	0
0	9054	43.87	1
0	9058	43.870752	0
0	9106	44.1	1
0	9110	44.100752	0
0	9157	44.34	1
0	9161	44.340752	0
0	9208	44.58	1
0	9212	44.580752	0
0	9260	44.81	1
0	9264	44.810752	0
0	9314	45.08	1
0	9318	45.080752	0
0	9366	45.31	1
0	9370	45.310752	0
0	9417	45.55	1
0	9421	45.550752	0
0	9467	45.78	1
0	9471	45.780752	0
0	9519	46.01	1
0	9523	46.010752	0
0	9573	46.28	1
0	9577	46.280752	0
0	9626	46.52	1
0	9630	46.520752	0
0	9676	46.75	1
0	9680	46.750752	0
0	9727	46.99	1
0	9731	46.990752	0
0	9779	47.22	1
0	9783	47.220752	0
0	9833	47.49	1
0	9837	47.490752	0
0	9885	47.72	1
0	9889	47.720752	0
0	9936	47.96	1
0	9940	47.960752	0
0	9986	48.19	1
0	9990	48.190752	0
0	10039	48.43	1
0	10043	48.430752	0
0	10092	48.69	1
0	10096	48.690752	0
0	10145	48.93	1
0	10149	48.930752	0
0	10195	49.16	1
0	10199	49.160752	0
0	10245	49.39	1
0	10249	49.390752	0
0	10298	49.63	1
0	10302	49.630752	0
0	10354	49.9	1
0	10358	49.900752	0
0	10405	50.14	1
0	10409	50.140752	0
0	10455	50.37	1
0	10459	50.370752	0
0	10507	50.6	1
0	10511	50.600752	0
0	10558	50.84	1
0	10562	50.840752	0
0	10613	51.1	1
0	10617	51.100752	0
0	10664	51.34	1
0	10668	51.340752	0
0	10714	51.57	1
0	10718	51.570752	0
0	10766	51.8	1
0	10770	51.800752	0
0	10817	52.04	1
0	10821	52.040752	0
0	10873	52.31	1
0	10877	52.310752	0
0	10923	52.54	1
0	10927	52.540752	0
0	10974	52.78	1
0	10978	52.780752	0
0	11026	53.01	1
0	11030	53.010752	0
0	11076	53.24	1
0	11080	53.240752	0
0	11132	53.51	1
0	11136	53.510752	0
0	11183	53.75	1
0	11187	53.750752	0
0	11233	53.98	1
0	11237	53.980752	0
0	11285	54.21	1
0	11289	54.210752	0
0	11336	54.45	1
0	11340	54.450752	0
0	11392	54.72	1
0	11396	54.720752	0
0	11442	54.95	1
0	11446	54.950752	0
0	11493	55.19	1
0	11497	55.190752	0
0	11545	55.42	1
0	11549	55.420752	0
0	11596	55.66	1
0	11600	55.660752	0
0	11647	55.92	1
0	11651	55.920752	0
0	11697	56.15	1
0	11701	56.150752	0
0	11748	56.39	1
0	11752	56.390752	0
0	11801	56.63	1
0	11805	56.630752	0
0	11851	56.86	1
0	11855	56.860752	0
0	11907	57.13	1
0	11911	57.130752	0
0	11957	57.36	1
0	11961	57.360752	0
0	12007	57.59	1
0	12011	57.590752	0
0	12060	57.83	1
0	12064	57.830752	0
0	12111	58.07	1
0	12115	58.070752	0
0	12167	58.34	1
0	12171	58.340752	0
0	12217	58.57	1
0	12221	58.570752	0
0	12269	58.8	1
0	12273	58.800752	0
0	12320	59.04	1
0	12324	59.040752	0
0	12372	59.29	1
0	12376	59.290752	0
0	12425	59.53	1
0	12429	59.530752	0
0	12475	59.76	1
0	12479	59.760752	0
0	12528	60	1
0	12532	60.000752	0
0	12579	60.24	1
0	12583	60.240752	0
0	12635	60.51	1
0	12639	60.510752	0
0	12686	60.75	1
0	12690	60.750752	0
0	12737	60.99	1
0	12741	60.990752	0
0	12789	61.22	1
0	12793	61.220752	0
0	12840	61.46	1
0	12844	61.460752	0
0	12895	61.72	1
0	12899	61.720752	0
0	12945	61.95	1
0	12949	61.950752	0
0	12995	62.18	1
0	12999	62.180752	0
0	13047	62.41	1
0	13051	62.410752	0
0	13097	62.64	1
0	13101	62.640752	0
0	13153	62.91	1
0	13157	62.910752	0
0	13204	63.15	1
0	13208	63.150752	0
0	13254	63.38	1
0	13258	63.380752	0
0	13307	63.62	1
0	13311	63.620752	0
0	13358	63.86	1
0	13362	63.860752	0
0	13414	64.13	1
0	13418	64.130752	0
0	13465	64.37	1
0	13469	64.370752	0
0	13517	64.6	1
0	13521	64.600752	0
0	13568	64.84	1
0	13572	64.840752	0
0	13618	65.07	1
0	13622	65.070752	0
0	13673	65.33	1
0	13677	65.330752	0
0	13723	65.56	1
0	13727	65.560752	0
0	13773	65.79	1
0	13777	65.790752	0
0	13826	66.03	1
0	13830	66.030752	0
0	13872	66.26	1
0	13876	66.260752	0
0	13929	66.54	1
0	13933	66.540752	0
0	13980	66.78	1
0	13984	66.780752	0
0	14032	67.01	1
0	14036	67.010752	0
0	14083	67.25	1
0	14087	67.250752	0
0	14134	67.49	1
0	14138	67.490752	0
0	14189	67.75	1
0	14193	67.750752	0
0	14239	67.98	1
0	14243	67.980752	0
0	14291	68.21	1
0	14295	68.210752	0
0	14341	68.44	1
0	14345	68.440752	0
0	14392	68.68	1
0	14396	68.680752	0
0	14448	68.95	1
0	14452	68.950752	0
0	14498	69.18	1
0	14502	69.180752	0
0	14551	69.42	1
0	14555	69.420752	0
0	14602	69.66	1
0	14606	69.660752	0
0	14652	69.89	1
0	14656	69.890752	0
0	14708	70.16	1
0	14712	70.160752	0
0	14758	70.39	1
0	14762	70.390752	0
0	14810	70.62	1
0	14814	70.620752	0
0	14861	70.86	1
0	14865	70.860752	0
0	14911	71.09	1
0	14915	71.090752	0
0	14967	71.36	1
0	14971	71.360752	0
0	15017	71.59	1
0	15021	71.590752	0
0	15070	71.83	1
0	15074	71.830752	0
0	15120	72.06	1
0	15124	72.060752	0
0	15169	72.3	1
0	15173	72.300752	0
0	15222	72.56	1
0	15226	72.560752	0
0	15275	72.8	1
0	15279	72.800752	0
0	15325	73.03	1
0	15329	73.030752	0
0	15376	73.27	1
0	15380	73.270752	0
0	15428	73.5	1
0	15432	73.500752	0
0	15482	73.77	1
0	15486	73.770752	0
0	15534	74	1
0	15538	74.000752	0
0	15585	74.24	1
0	15589	74.240752	0
0	15635	74.47	1
0	15639	74.470752	0
0	15688	74.71	1
0	15692	74.710752	0
0	15741	74.97	1
0	15745	74.970752	0
0	15794	75.21	1
0	15798	75.210752	0
0	15844	75.44	1
0	15848	75.440752	0
0	15895	75.68	1
0	15899	75.680752	0
0	15951	75.95	1
0	15955	75.950752	0
0	16001	76.18	1
0	16005	76.180752	0
0	16054	76.42	1
0	16058	76.420752	0
0	16104	76.65	1
0	16108	76.650752	0
0	16154	76.88	1
0	16158	76.880752	0
0	16206	77.15	1
0	16210	77.150752	0
0	16256	77.38	1
0	16260	77.380752	0
0	16309	77.62	1
0	16313	77.620752	0
0	16360	77.86	1
0	16364	77.860752	0
0	16410	78.09	1
0	16414	78.090752	0
0	16466	78.36	1
0	16470	78.360752	0
0	16516	78.59	1
0	16520	78.590752	0
0	16569	78.83	1
0	16573	78.830752	0
0	16619	79.06	1
0	16623	79.060752	0
0	16669	79.29	1
0	16673	79.290752	0
0	16724	79.55	1
0	16728	79.550752	0
0	16775	79.79	1
0	16779	79.790752	0
0	16828	80.03	1
0	16832	80.030752	0
0	16878	80.26	1
0	16882	80.260752	0
0	16931	80.5	1
0	16935	80.500752	0
0	16985	80.77	1
0	16989	80.770752	0
0	17037	81	1
0	17041	81.000752	0
0	17087	81.23	1
0	17091	81.230752	0
0	17138	81.47	1
0	17142	81.470752	0
0	17190	81.7	1
0	17194	81.700752	0
0	17244	81.97	1
0	17248	81.970752	0
0	17297	82.21	1
0	17301	82.210752	0
0	17347	82.44	1
0	17351	82.440752	0
0	17398	82.68	1
0	17402	82.680752	0
0	17450	82.91	1
0	17454	82.910752	0
0	17503	83.17	1
0	17507	83.170752	0
0	17555	83.4	1
0	17559	83.400752	0
0	17606	83.64	1
0	17610	83.640752	0
0	17656	83.87	1
0	17660	83.870752	0
0	17709	84.11	1
0	17713	84.110752	0
0	17759	84.38	1
0	17763	84.380752	0
0	17811	84.61	1
0	17815	84.610752	0
0	17862	84.85	1
0	17866	84.850752	0
0	17913	85.09	1
0	17917	85.090752	0
0	17966	85.33	1
0	17970	85.330752	0
0	18019	85.59	1
0	18023	85.590752	0
0	18071	85.82	1
0	18075	85.820752	0
0	18121	86.05	1
0	18125	86.050752	0
0	18171	86.28	1
0	18175	86.280752	0
0	18224	86.52	1
0	18228	86.520752	0
0	18277	86.78	1
0	18281	86.780752	0
0	18330	87.02	1
0	18334	87.020752	0
0	18381	87.26	1
0	18385	87.260752	0
0	18434	87.5	1
0	18438	87.500752	0
0	18484	87.73	1
0	18488	87.730752	0
0	18540	88	1
0	18544	88.000752	0
0	18590	88.23	1
0	18594	88.230752	0
0	18640	88.46	1
0	18644	88.460752	0
0	18693	88.7	1
0	18697	88.700752	0
0	18743	88.93	1
0	18747	88.930752	0
0	18799	89.2	1
0	18803	89.200752	0
0	18850	89.44	1
0	18854	89.440752	0
0	18900	89.67	1
0	18904	89.670752	0
0	18953	89.91	1
0	18957	89.910752	0
0	19003	90.14	1
0	19007	90.140752	0
0	19059	90.41	1
0	19063	90.410752	0
0	19109	90.64	1
0	19113	90.640752	0
0	19159	90.87	1
0	19163	90.870752	0
0	19211	91.1	1
0	19215	91.100752	0
0	19262	91.34	1
0	19266	91.340752	0
0	19318	91.61	1
0	19322	91.610752	0
0	19369	91.85	1
0	19373	91.850752	0
0	19420	92.09	1
0	19424	92.090752	0
0	19472	92.32	1
0	19476	92.320752	0
0	19522	92.59	1
0	19526	92.590752	0
0	19574	92.82	1
0	19578	92.820752	0
0	19625	93.06	1
0	19629	93.060752	0
0	19671	93.29	1
0	19675	93.290752	0
0	19723	93.52	1
0	19727	93.520752	0
0	19776	93.78	1
0	19780	93.780752	0
0	19829	94.02	1
0	19833	94.020752	0
0	19879	94.25	1
0	19883	94.250752	0
0	19930	94.49	1
0	19934	94.490752	0
0	19983	94.73	1
0	19987	94.730752	0
0	20039	95	1
0	20043	95.000752	0
0	20090	95.24	1
0	20094	95.240752	0
0	20140	95.47	1
0	20144	95.470752	0
0	20193	95.71	1
0	20197	95.710752	0
0	20243	95.94	1
0	20247	95.940752	0
0	20298	96.2	1
0	20302	96.200752	0
0	20348	96.43	1
0	20352	96.430752	0
0	20398	96.66	1
0	20402	96.660752	0
0	20448	96.89	1
0	20452	96.890752	0
0	20501	97.13	1
0	20505	97.130752	0
0	20557	97.4	1
0	20561	97.400752	0
0	20607	97.63	1
0	20611	97.630752	0
0	20659	97.88	1
0	20663	97.880752	0
0	20711	98.11	1
0	20715	98.110752	0
0	20762	98.35	1
0	20766	98.350752	0
0	20817	98.61	1
0	20821	98.610752	0
0	20867	98.84	1
0	20871	98.840752	0
0	20918	99.08	1
0	20922	99.080752	0
0	20971	99.32	1
0	20975	99.320752	0
0	21022	99.56	1
0	21026	99.560752	0
0	21078	99.83	1
0	21082	99.830752	0
0	21129	100.07	1
0	21133	100.070752	0
0	21181	100.3	1
0	21185	100.300752	0
0	21231	100.53	1
0	21235	100.530752	0