version 3
run General-0-20240312-17:37:40-83628
attr configname General
attr datetime 20240312-17:37:40
attr datetimef 20240312-173740
attr experiment General
attr inifile omnetpp.ini
attr iterationvars ""
attr iterationvarsd ""
attr iterationvarsf ""
attr measurement ""
attr network src.NED.Network
attr processid 83628
attr repetition 0
attr replication #0
attr resultdir results
attr runnumber 0
attr seedset 0
config image-path ../../../Thesis_CODE/Omnet/inet/images
config network src.NED.Network
config scheduler-class UDPsocketRTScheduler
config description "Connection with ArduSim"
config **.rt.module-eventlog-recording false
config **.host[*].mobility.module-eventlog-recording false
config **.numUAVs 2
config *.host*.ipv4.arp.typename GlobalArp
config *.host[*].numApps 1
config *.host[*].app[0].typename DroneApp
config *.radioMedium.typename Ieee80211DimensionalRadioMedium
config *.radioMedium.backgroundNoise.power -90dBm
config **.wlan[0].radio.typename Ieee80211DimensionalRadio
config *.host[*].wlan[*].radio.transmitter.power 100mW
config **.wlan[0].mac.typename Ieee80211Mac
config **.wlan[0].mgmtType.typename Ieee80211MgmtAdhoc
config **.wlan[0].opMode "\"p\""
config **.radioMedium.pathLoss.typename FreeSpacePathLoss
config **.radioMedium.obstacleLoss.typename DielectricObstacleLoss
config **.physicalEnvironment.config "xmldoc(\"Val_Ob.xml\")"
config *.host[*].mobility.typename LinearMobility
config *.host[*].mobility.initFromDisplayString false
config *.host[*].mobility.initialX 0m
config *.host[*].mobility.initialY 0m

vector 0 Network.host[0].wlan[0].mac.dcf frameSequenceActive:vector ETV
attr autoWarmupFilter false
attr interpolationmode sample-hold
attr recordingmode vector
attr source warmup(count(frameSequenceStarted)-count(frameSequenceFinished))
attr title "frame sequence active"
vector 1 Network.host[0].wlan[0].mac.dcf.channelAccess.pendingQueue queueLength:vector ETV
attr autoWarmupFilter false
attr interpolationmode sample-hold
attr recordingmode vector
attr source "warmup(atomic(constant0(packetPushEnded) + count(packetPushStarted) - count(packetPulled) - count(packetRemoved) - count(packetDropped)))"
attr title "queue length"
attr unit pk
vector 2 Network.host[0].wlan[0].mac.dcf.channelAccess.pendingQueue queueBitLength:vector ETV
attr autoWarmupFilter false
attr interpolationmode sample-hold
attr recordingmode vector
attr source "warmup(atomic(constant0(packetPushEnded) + sum(packetLength(packetPushStarted)) - sum(packetLength(packetPulled)) - sum(packetLength(packetRemoved)) - sum(packetLength(packetDropped))))"
attr title "queue bit length"
attr unit b
vector 3 Network.host[0].wlan[0].mac.dcf.channelAccess.inProgressFrames queueLength:vector ETV
attr autoWarmupFilter false
attr interpolationmode sample-hold
attr recordingmode vector
attr source "warmup(count(packetEnqueued) - count(packetDequeued))"
attr title "queue length"
vector 4 Network.host[0].wlan[0].mac.dcf.channelAccess.contention backoffActive:vector ETV
attr autoWarmupFilter false
attr interpolationmode sample-hold
attr recordingmode vector
attr source warmup(count(backoffStarted)-count(backoffStopped))
attr title "backoff active"
vector 5 Network.host[0].udp passedUpPk:vector(count) ETV
attr interpolationmode none
attr recordingmode vector(count)
attr source packetSentToUpper
attr title "packets passed up, count"
vector 6 Network.host[0].udp droppedPkWrongPort:vector(count) ETV
attr interpolationmode none
attr recordingmode vector(count)
attr source packetDropReasonIsNoPortFound(packetDropped)
attr title "packets dropped (wrong port), count"
vector 7 Network.host[0].udp droppedPkBadChecksum:vector(count) ETV
attr interpolationmode none
attr recordingmode vector(count)
attr source packetDropReasonIsIncorrectlyReceived(packetDropped)
attr title "packets dropped (checksum error), count"
vector 8 Network.host[1].wlan[0].mac.dcf frameSequenceActive:vector ETV
attr autoWarmupFilter false
attr interpolationmode sample-hold
attr recordingmode vector
attr source warmup(count(frameSequenceStarted)-count(frameSequenceFinished))
attr title "frame sequence active"
vector 9 Network.host[1].wlan[0].mac.dcf.channelAccess.pendingQueue queueLength:vector ETV
attr autoWarmupFilter false
attr interpolationmode sample-hold
attr recordingmode vector
attr source "warmup(atomic(constant0(packetPushEnded) + count(packetPushStarted) - count(packetPulled) - count(packetRemoved) - count(packetDropped)))"
attr title "queue length"
attr unit pk
vector 10 Network.host[1].wlan[0].mac.dcf.channelAccess.pendingQueue queueBitLength:vector ETV
attr autoWarmupFilter false
attr interpolationmode sample-hold
attr recordingmode vector
attr source "warmup(atomic(constant0(packetPushEnded) + sum(packetLength(packetPushStarted)) - sum(packetLength(packetPulled)) - sum(packetLength(packetRemoved)) - sum(packetLength(packetDropped))))"
attr title "queue bit length"
attr unit b
vector 11 Network.host[1].wlan[0].mac.dcf.channelAccess.inProgressFrames queueLength:vector ETV
attr autoWarmupFilter false
attr interpolationmode sample-hold
attr recordingmode vector
attr source "warmup(count(packetEnqueued) - count(packetDequeued))"
attr title "queue length"
vector 12 Network.host[1].wlan[0].mac.dcf.channelAccess.contention backoffActive:vector ETV
attr autoWarmupFilter false
attr interpolationmode sample-hold
attr recordingmode vector
attr source warmup(count(backoffStarted)-count(backoffStopped))
attr title "backoff active"
vector 13 Network.host[1].udp passedUpPk:vector(count) ETV
attr interpolationmode none
attr recordingmode vector(count)
attr source packetSentToUpper
attr title "packets passed up, count"
vector 14 Network.host[1].udp droppedPkWrongPort:vector(count) ETV
attr interpolationmode none
attr recordingmode vector(count)
attr source packetDropReasonIsNoPortFound(packetDropped)
attr title "packets dropped (wrong port), count"
vector 15 Network.host[1].udp droppedPkBadChecksum:vector(count) ETV
attr interpolationmode none
attr recordingmode vector(count)
attr source packetDropReasonIsIncorrectlyReceived(packetDropped)
attr title "packets dropped (checksum error), count"
vector 16 Network.host[0].wlan[0].radio radioMode:vector ETV
attr interpolationmode sample-hold
attr recordingmode vector
attr source radioModeChanged
attr title "Radio mode"
vector 17 Network.host[0].wlan[0].radio radioChannel:vector ETV
attr interpolationmode sample-hold
attr recordingmode vector
attr source radioChannelChanged
attr title "Radio channel"
vector 18 Network.host[1].wlan[0].radio radioMode:vector ETV
attr interpolationmode sample-hold
attr recordingmode vector
attr source radioModeChanged
attr title "Radio mode"
vector 19 Network.host[1].wlan[0].radio radioChannel:vector ETV
attr interpolationmode sample-hold
attr recordingmode vector
attr source radioChannelChanged
attr title "Radio channel"
vector 20 Network.host[0].wlan[0].radio receptionState:vector ETV
attr interpolationmode sample-hold
attr recordingmode vector
attr source receptionStateChanged
attr title "Radio reception state"
vector 21 Network.host[0].wlan[0].mac.dcf.channelAccess.contention stateChanged:vector ETV
attr enum IDLE,DEFER,IFS_AND_BACKOFF
attr interpolationmode none
attr recordingmode vector
attr title "contention state changed"
attr type enum
vector 22 Network.host[1].wlan[0].radio receptionState:vector ETV
attr interpolationmode sample-hold
attr recordingmode vector
attr source receptionStateChanged
attr title "Radio reception state"
vector 23 Network.host[1].wlan[0].mac.dcf.channelAccess.contention stateChanged:vector ETV
attr enum IDLE,DEFER,IFS_AND_BACKOFF
attr interpolationmode none
attr recordingmode vector
attr title "contention state changed"
attr type enum
vector 24 Network.host[0].wlan[0].mac.dcf.recoveryProcedure contentionWindowChanged:vector ETV
attr interpolationmode sample-hold
attr recordingmode vector
attr title "contention window"
vector 25 Network.host[1].wlan[0].mac.dcf.recoveryProcedure contentionWindowChanged:vector ETV
attr interpolationmode sample-hold
attr recordingmode vector
attr title "contention window"
vector 26 Network.host[0].udp packetSent:vector(packetBytes) ETV
attr interpolationmode none
attr recordingmode vector(packetBytes)
attr source packetSent
attr title "packets sent, packetBytes"
vector 27 Network.host[0].lo[0].lo rcvdPkFromHl:vector(packetBytes) ETV
attr interpolationmode none
attr recordingmode vector(packetBytes)
attr source packetReceivedFromUpper
attr title "packets received from higher layer, packetBytes"
vector 28 Network.host[0].lo[0].lo passedUpPk:vector(packetBytes) ETV
attr interpolationmode none
attr recordingmode vector(packetBytes)
attr source packetSentToUpper
attr title "packets passed to higher layer, packetBytes"
vector 29 Network.host[0].wlan[0].mac packetReceivedFromUpper:vector(packetBytes) ETV
attr interpolationmode none
attr recordingmode vector(packetBytes)
attr title "packets received from upper layer, packetBytes"
vector 30 Network.host[0].wlan[0].mac.dcf.channelAccess.pendingQueue incomingPacketLengths:vector ETV
attr interpolationmode none
attr recordingmode vector
attr source packetLength(packetPushStarted)
attr title "incoming packet lengths"
attr unit b
vector 31 Network.host[0].wlan[0].mac.dcf.channelAccess.pendingQueue incomingDataRate:vector ETV
attr interpolationmode linear
attr recordingmode vector
attr source throughput(packetPushStarted)
attr title "incoming datarate"
attr unit bps
vector 32 Network.host[0].wlan[0].mac.dcf.channelAccess.contention backoffPeriodGenerated:vector ETV
attr interpolationmode none
attr recordingmode vector
attr title "backoff periods"
vector 33 Network.host[0].udp packetReceived:vector(packetBytes) ETV
attr interpolationmode none
attr recordingmode vector(packetBytes)
attr source packetReceived
attr title "packets received, packetBytes"
vector 34 Network.host[0].wlan[0].mac.dcf.channelAccess.pendingQueue queueingTime:vector ETV
attr interpolationmode none
attr recordingmode vector
attr source queueingTime(packetPulled)
attr title "queueing times"
attr unit s
vector 35 Network.host[0].wlan[0].mac.dcf.channelAccess.pendingQueue outgoingPacketLengths:vector ETV
attr interpolationmode none
attr recordingmode vector
attr source packetLength(packetPulled)
attr title "outgoing packet lengths"
attr unit b
vector 36 Network.host[0].wlan[0].mac.dcf.channelAccess.pendingQueue outgoingDataRate:vector ETV
attr interpolationmode linear
attr recordingmode vector
attr source throughput(packetPulled)
attr title "outgoing datarate"
attr unit bps
vector 37 Network.host[0].wlan[0].mac.dcf datarateSelected:vector ETV
attr interpolationmode none
attr recordingmode vector
attr title "datarates selected"
vector 38 Network.host[0].wlan[0].mac packetSentToLower:vector(packetBytes) ETV
attr interpolationmode none
attr recordingmode vector(packetBytes)
attr title "packets sent to lower layer, packetBytes"
vector 39 Network.host[0].wlan[0].radio transmissionState:vector ETV
attr interpolationmode sample-hold
attr recordingmode vector
attr source transmissionStateChanged
attr title "Radio transmission state"
vector 40 Network.host[0].wlan[0].mac.dcf packetSentToPeer:vector(packetBytes) ETV
attr interpolationmode none
attr recordingmode vector(packetBytes)
attr title "packets sent, packetBytes"
vector 41 Network.host[0].wlan[0].mac.dcf packetSentToPeerMulticast:vector(packetBytes) ETV
attr interpolationmode none
attr recordingmode vector(packetBytes)
attr source ieee80211Multicast(packetSentToPeer)
attr title "packets sent: multicast, packetBytes"
vector 42 Network.host[0].wlan[0].mac.dcf packetSentToPeerWithoutRetry:vector(packetBytes) ETV
attr interpolationmode none
attr recordingmode vector(packetBytes)
attr source ieee80211NotRetry(packetSentToPeer)
attr title "packets sent: without retry, packetBytes"
vector 43 Network.host[0].wlan[0].mac.dcf.channelAccess.inProgressFrames queueingTime:vector ETV
attr interpolationmode none
attr recordingmode vector
attr source queueingTime(packetDequeued)
attr title "queueing times"
vector 44 Network.host[1].wlan[0].mac packetReceivedFromLower:vector(packetBytes) ETV
attr interpolationmode none
attr recordingmode vector(packetBytes)
attr title "packets received from lower layer, packetBytes"
vector 45 Network.host[1].wlan[0].mac.dcf packetReceivedFromPeer:vector(packetBytes) ETV
attr interpolationmode none
attr recordingmode vector(packetBytes)
attr title "packets received, packetBytes"
vector 46 Network.host[1].wlan[0].mac.dcf packetReceivedFromPeerMulticast:vector(packetBytes) ETV
attr interpolationmode none
attr recordingmode vector(packetBytes)
attr source ieee80211Multicast(packetReceivedFromPeer)
attr title "packets received: multicast, packetBytes"
vector 47 Network.host[1].wlan[0].mac.dcf packetReceivedFromPeerWithoutRetry:vector(packetBytes) ETV
attr interpolationmode none
attr recordingmode vector(packetBytes)
attr source ieee80211NotRetry(packetReceivedFromPeer)
attr title "packets received: without retry, packetBytes"
vector 48 Network.host[1].wlan[0].mac packetSentToUpper:vector(packetBytes) ETV
attr interpolationmode none
attr recordingmode vector(packetBytes)
attr title "packets sent to upper layer, packetBytes"
vector 49 Network.host[1].udp packetReceived:vector(packetBytes) ETV
attr interpolationmode none
attr recordingmode vector(packetBytes)
attr source packetReceived
attr title "packets received, packetBytes"
vector 50 Network.host[1].wlan[0].mac packetDrop:vector(packetBytes) ETV
attr interpolationmode none
attr recordingmode vector(packetBytes)
attr source packetDropped
attr title "packet drops, packetBytes"
vector 51 Network.host[1].wlan[0].mac packetDropIncorrectlyReceived:vector(packetBytes) ETV
attr interpolationmode none
attr recordingmode vector(packetBytes)
attr source packetDropReasonIsIncorrectlyReceived(packetDropped)
attr title "packet drops: incorrectly received, packetBytes"
vector 52 Network.host[0].wlan[0].mac.dcf.channelAccess.pendingQueue flowOutgoingDataRate:vector ETV
attr interpolationmode linear
attr recordingmode vector
attr source throughput(flowPacketLength(demuxFlow(packetPulled)))
attr title "flow specific outgoing data rate"
attr unit bps
vector 53 Network.host[0].wlan[0].mac.dcf.channelAccess.pendingQueue flowIncomingDataRate:vector ETV
attr interpolationmode linear
attr recordingmode vector
attr source throughput(flowPacketLength(demuxFlow(packetPushStarted)))
attr title "flow specific incoming data rate"
attr unit bps
vector 54 Network.host[0].app[0] throughput:vector ETV
attr recordingmode vector
attr source throughput(packetReceived)
attr title throughput
attr unit bps
vector 55 Network.host[1].wlan[0].mac.dcf.channelAccess.pendingQueue outgoingDataRate:vector ETV
attr interpolationmode linear
attr recordingmode vector
attr source throughput(packetPulled)
attr title "outgoing datarate"
attr unit bps
vector 56 Network.host[1].wlan[0].mac.dcf.channelAccess.pendingQueue flowOutgoingDataRate:vector ETV
attr interpolationmode linear
attr recordingmode vector
attr source throughput(flowPacketLength(demuxFlow(packetPulled)))
attr title "flow specific outgoing data rate"
attr unit bps
vector 57 Network.host[1].wlan[0].mac.dcf.channelAccess.pendingQueue incomingDataRate:vector ETV
attr interpolationmode linear
attr recordingmode vector
attr source throughput(packetPushStarted)
attr title "incoming datarate"
attr unit bps
vector 58 Network.host[1].wlan[0].mac.dcf.channelAccess.pendingQueue flowIncomingDataRate:vector ETV
attr interpolationmode linear
attr recordingmode vector
attr source throughput(flowPacketLength(demuxFlow(packetPushStarted)))
attr title "flow specific incoming data rate"
attr unit bps
vector 59 Network.host[1].app[0] throughput:vector ETV
attr recordingmode vector
attr source throughput(packetReceived)
attr title throughput
attr unit bps
0	0	0	0
0	0	0	0
0	22013	184.11	1
0	22017	184.110752	0
0	22116	184.82	1
0	22120	184.820752	0
0	22164	185.08	1
0	22168	185.080752	0
0	22211	185.31	1
0	22215	185.310752	0
0	22256	185.54	1
0	22260	185.540752	0
0	22302	185.78	1
0	22306	185.780752	0
0	22350	186.02	1
0	22354	186.020752	0
0	22398	186.28	1
0	22402	186.280752	0
0	22446	186.52	1
0	22450	186.520752	0
0	22491	186.75	1
0	22495	186.750752	0
0	22536	186.98	1
0	22540	186.980752	0
0	22584	187.22	1
0	22588	187.220752	0
0	22633	187.49	1
0	22637	187.490752	0
0	22680	187.72	1
0	22684	187.720752	0
0	22731	187.96	1
0	22735	187.960752	0
0	22776	188.19	1
0	22780	188.190752	0
0	22824	188.43	1
0	22828	188.430752	0
0	22875	188.7	1
0	22879	188.700752	0
0	22920	188.93	1
0	22924	188.930752	0
0	22965	189.16	1
0	22969	189.160752	0
0	23010	189.39	1
0	23014	189.390752	0
0	23058	189.63	1
0	23062	189.630752	0
0	23109	189.9	1
0	23113	189.900752	0
0	23154	190.13	1
0	23158	190.130752	0
0	23200	190.37	1
0	23204	190.370752	0
0	23247	190.6	1
0	23251	190.600752	0
0	23296	190.87	1
0	23300	190.870752	0
0	23343	191.1	1
0	23347	191.100752	0
0	23389	191.34	1
0	23393	191.340752	0
0	23434	191.57	1
0	23438	191.570752	0
0	23482	191.81	1
0	23486	191.810752	0
0	23530	192.07	1
0	23534	192.070752	0
0	23578	192.31	1
0	23582	192.310752	0
0	23623	192.54	1
0	23627	192.540752	0
0	23669	192.78	1
0	23673	192.780752	0
0	23716	193.01	1
0	23720	193.010752	0
0	23765	193.28	1
0	23769	193.280752	0
0	23812	193.51	1
0	23816	193.510752	0
0	23858	193.75	1
0	23862	193.750752	0
0	23903	193.98	1
0	23907	193.980752	0
0	23951	194.22	1
0	23955	194.220752	0
0	23999	194.48	1
0	24003	194.480752	0
0	24047	194.72	1
0	24051	194.720752	0
0	24092	194.95	1
0	24096	194.950752	0
0	24138	195.19	1
0	24142	195.190752	0
0	24185	195.42	1
0	24189	195.420752	0
0	24234	195.69	1
0	24238	195.690752	0
0	24282	195.93	1
0	24286	195.930752	0
0	24327	196.16	1
0	24331	196.160752	0
0	24372	196.39	1
0	24376	196.390752	0
0	24420	196.63	1
0	24424	196.630752	0
0	24468	196.89	1
0	24472	196.890752	0
0	24516	197.13	1
0	24520	197.130752	0
0	24562	197.37	1
0	24566	197.370752	0
0	24609	197.6	1
0	24613	197.600752	0
0	24654	197.83	1
0	24658	197.830752	0
0	24705	198.1	1
0	24709	198.100752	0
0	24750	198.33	1
0	24754	198.330752	0
0	24796	198.57	1
0	24800	198.570752	0
0	24844	198.81	1
0	24848	198.810752	0
0	24889	199.04	1
0	24893	199.040752	0
0	24939	199.3	1
0	24943	199.300752	0
0	24984	199.53	1
0	24988	199.530752	0
0	25030	199.77	1
0	25034	199.770752	0
0	25078	200.01	1
0	25082	200.010752	0
0	25124	200.25	1
0	25128	200.250752	0
0	25174	200.51	1
0	25178	200.510752	0
0	25220	200.75	1
0	25224	200.750752	0
0	25265	200.98	1
0	25269	200.980752	0
0	25312	201.21	1
0	25316	201.210752	0
0	25357	201.44	1
0	25361	201.440752	0
0	25409	201.72	1
0	25413	201.720752	0
0	25454	201.95	1
0	25458	201.950752	0
0	25500	202.19	1
0	25504	202.190752	0
0	25547	202.42	1
0	25551	202.420752	0
0	25592	202.65	1
0	25596	202.650752	0
0	25643	202.92	1
0	25647	202.920752	0
0	25688	203.15	1
0	25692	203.150752	0
0	25734	203.39	1
0	25738	203.390752	0
0	25781	203.62	1
0	25785	203.620752	0
0	25827	203.86	1
0	25831	203.860752	0
0	25878	204.13	1
0	25882	204.130752	0
0	25923	204.36	1
0	25927	204.360752	0
0	25971	204.6	1
0	25975	204.600752	0
0	26016	204.83	1
0	26020	204.830752	0
0	26061	205.06	1
0	26065	205.060752	0
0	26112	205.33	1
0	26116	205.330752	0
0	26157	205.56	1
0	26161	205.560752	0
0	26205	205.8	1
0	26209	205.800752	0
0	26251	206.04	1
0	26255	206.040752	0
0	26296	206.27	1
0	26300	206.270752	0
0	26347	206.54	1
0	26351	206.540752	0
0	26392	206.77	1
0	26396	206.770752	0
0	26440	207.01	1
0	26444	207.010752	0
0	26485	207.24	1
0	26489	207.240752	0
0	26535	207.5	1
0	26539	207.500752	0
0	26581	207.74	1
0	26585	207.740752	0
0	26627	207.98	1
0	26631	207.980752	0
0	26674	208.21	1
0	26678	208.210752	0
0	26719	208.44	1
0	26723	208.440752	0
0	26770	208.71	1
0	26774	208.710752	0
0	26816	208.95	1
0	26820	208.950752	0
0	26861	209.18	1
0	26865	209.180752	0
0	26909	209.42	1
0	26913	209.420752	0
0	26954	209.65	1
0	26958	209.650752	0
0	27005	209.92	1
0	27009	209.920752	0
0	27050	210.15	1
0	27054	210.150752	0
0	27096	210.39	1
0	27100	210.390752	0
0	27143	210.62	1
0	27147	210.620752	0
0	27188	210.85	1
0	27192	210.850752	0
0	27238	211.11	1
0	27242	211.110752	0
0	27284	211.35	1
0	27288	211.350752	0
0	27330	211.59	1
0	27334	211.590752	0
0	27378	211.83	1
0	27382	211.830752	0
0	27424	212.07	1
0	27428	212.070752	0
0	27475	212.34	1
0	27479	212.340752	0
0	27520	212.57	1
0	27524	212.570752	0
0	27567	212.8	1
0	27571	212.800752	0
0	27612	213.03	1
0	27616	213.030752	0
0	27657	213.26	1
0	27661	213.260752	0
0	27707	213.52	1
0	27711	213.520752	0
0	27753	213.76	1
0	27757	213.760752	0
0	27798	213.99	1
0	27802	213.990752	0
0	27846	214.23	1
0	27850	214.230752	0
0	27892	214.47	1
0	27896	214.470752	0
0	27943	214.74	1
0	27947	214.740752	0
0	27989	214.98	1
0	27993	214.980752	0
0	28036	215.21	1
0	28040	215.210752	0
0	28082	215.45	1
0	28086	215.450752	0
0	28128	215.69	1
0	28132	215.690752	0
0	28178	215.95	1
0	28182	215.950752	0
0	28223	216.18	1
0	28227	216.180752	0
0	28270	216.41	1
0	28274	216.410752	0
0	28315	216.64	1
0	28319	216.640752	0
0	28361	216.88	1
0	28365	216.880752	0
0	28412	217.15	1
0	28416	217.150752	0
0	28457	217.38	1
0	28461	217.380752	0
0	28505	217.62	1
0	28509	217.620752	0
0	28551	217.86	1
0	28555	217.860752	0
0	28599	218.1	1
0	28603	218.100752	0
0	28647	218.36	1
0	28651	218.360752	0
0	28692	218.59	1
0	28696	218.590752	0
0	28739	218.82	1
0	28743	218.820752	0
0	28785	219.06	1
0	28789	219.060752	0
0	28833	219.3	1
0	28837	219.300752	0
0	28886	219.56	1
0	28890	219.560752	0
0	28931	219.79	1
0	28935	219.790752	0
0	28979	220.03	1
0	28983	220.030752	0
0	29025	220.27	1
0	29029	220.270752	0
0	29072	220.5	1
0	29076	220.500752	0
0	29121	220.77	1
0	29125	220.770752	0
0	29168	221	1
0	29172	221.000752	0
0	29213	221.23	1
0	29217	221.230752	0
0	29259	221.47	1
0	29263	221.470752	0
0	29306	221.7	1
0	29310	221.700752	0
0	29355	221.97	1
0	29359	221.970752	0
0	29403	222.21	1
0	29407	222.210752	0
0	29449	222.45	1
0	29453	222.450752	0
0	29494	222.68	1
0	29498	222.680752	0
0	29541	222.91	1
0	29545	222.910752	0
0	29590	223.18	1
0	29594	223.180752	0
0	29637	223.41	1
0	29641	223.410752	0
0	29682	223.64	1
0	29686	223.640752	0
0	29728	223.88	1
0	29732	223.880752	0
0	29779	224.15	1
0	29783	224.150752	0
0	29825	224.39	1
0	29829	224.390752	0
0	29872	224.62	1
0	29876	224.620752	0
0	29918	224.86	1
0	29922	224.860752	0
0	29963	225.09	1
0	29967	225.090752	0
0	30013	225.35	1
0	30017	225.350752	0
0	30059	225.59	1
0	30063	225.590752	0
0	30106	225.82	1
0	30110	225.820752	0
0	30152	226.06	1
0	30156	226.060752	0
0	30197	226.29	1
0	30201	226.290752	0
0	30248	226.56	1
0	30252	226.560752	0
0	30296	226.8	1
0	30300	226.800752	0
0	30341	227.03	1
0	30345	227.030752	0
0	30386	227.26	1
0	30390	227.260752	0
0	30434	227.5	1
0	30438	227.500752	0
0	30482	227.76	1
0	30486	227.760752	0
0	30530	228	1
0	30534	228.000752	0
0	30576	228.24	1
0	30580	228.240752	0
0	30621	228.47	1
0	30625	228.470752	0
0	30668	228.7	1
0	30672	228.700752	0
0	30722	228.97	1
0	30726	228.970752	0
0	30774	229.2	1
0	30778	229.200752	0
0	30825	229.44	1
0	30829	229.440752	0
0	30876	229.68	1
0	30880	229.680752	0
0	30928	229.91	1
0	30932	229.910752	0
0	30982	230.18	1
0	30986	230.180752	0
0	31034	230.41	1
0	31038	230.410752	0
0	31084	230.64	1
0	31088	230.640752	0
0	31134	230.87	1
0	31138	230.870752	0
0	31182	231.11	1
0	31186	231.110752	0
0	31231	231.38	1
0	31235	231.380752	0
0	31279	231.62	1
0	31283	231.620752	0
0	31324	231.85	1
0	31328	231.850752	0
0	31369	232.08	1
0	31373	232.080752	0
0	31417	232.32	1
0	31421	232.320752	0
0	31466	232.59	1
0	31470	232.590752	0
0	31513	232.82	1
0	31517	232.820752	0
0	31559	233.06	1
0	31563	233.060752	0
0	31609	233.29	1
0	31613	233.290752	0
0	31656	233.52	1
0	31660	233.520752	0
0	31705	233.79	1
0	31709	233.790752	0
0	31753	234.03	1
0	31757	234.030752	0
0	31798	234.26	1
0	31802	234.260752	0
0	31846	234.5	1
0	31850	234.500752	0
0	31891	234.73	1
0	31895	234.730752	0
0	31939	234.99	1
0	31943	234.990752	0
0	31987	235.23	1
0	31991	235.230752	0
0	32033	235.47	1
0	32037	235.470752	0
0	32080	235.7	1
0	32084	235.700752	0
0	32125	235.93	1
0	32129	235.930752	0
0	32176	236.2	1
0	32180	236.200752	0
0	32222	236.44	1
0	32226	236.440752	0
0	32267	236.67	1
0	32271	236.670752	0
0	32315	236.91	1
0	32319	236.910752	0
0	32360	237.14	1
0	32364	237.140752	0
0	32411	237.41	1
0	32415	237.410752	0
0	32456	237.64	1
0	32460	237.640752	0
0	32502	237.88	1
0	32506	237.880752	0
0	32549	238.11	1
0	32553	238.110752	0
0	32595	238.35	1
0	32599	238.350752	0
0	32645	238.61	1
0	32649	238.610752	0
0	32690	238.84	1
0	32694	238.840752	0
0	32736	239.08	1
0	32740	239.080752	0
0	32784	239.32	1
0	32788	239.320752	0
0	32830	239.55	1
0	32834	239.550752	0
0	32882	239.82	1
0	32886	239.820752	0
0	32929	240.06	1
0	32933	240.060752	0
0	32975	240.29	1
0	32979	240.290752	0
0	33023	240.52	1
0	33027	240.520752	0
0	33071	240.78	1
0	33075	240.780752	0
0	33118	241.01	1
0	33122	241.010752	0
0	33164	241.25	1
0	33168	241.250752	0
0	33209	241.48	1
0	33213	241.480752	0
0	33257	241.72	1
0	33261	241.720752	0
0	33309	242	1
0	33313	242.000752	0
0	33355	242.24	1
0	33359	242.240752	0
0	33400	242.47	1
0	33404	242.470752	0
0	33448	242.71	1
0	33452	242.710752	0
0	33493	242.94	1
0	33497	242.940752	0
0	33544	243.21	1
0	33548	243.210752	0
0	33589	243.44	1
0	33593	243.440752	0
0	33634	243.67	1
0	33638	243.670752	0
0	33681	243.9	1
0	33685	243.900752	0
0	33726	244.13	1
0	33730	244.130752	0
0	33774	244.39	1
0	33778	244.390752	0
0	33822	244.63	1
0	33826	244.630752	0
0	33868	244.87	1
0	33872	244.870752	0
0	33916	245.11	1
0	33920	245.110752	0
0	33961	245.34	1
0	33965	245.340752	0
0	34013	245.62	1
0	34017	245.620752	0
0	34058	245.85	1
0	34062	245.850752	0
0	34104	246.09	1
0	34108	246.090752	0
0	34151	246.32	1
0	34155	246.320752	0
0	34196	246.55	1
0	34200	246.550752	0
0	34246	246.81	1
0	34250	246.810752	0
0	34292	247.05	1
0	34296	247.050752	0
0	34337	247.28	1
0	34341	247.280752	0
0	34384	247.51	1
0	34388	247.510752	0
0	34430	247.75	1
0	34434	247.750752	0
0	34481	248.02	1
0	34485	248.020752	0
0	34527	248.26	1
0	34531	248.260752	0
0	34575	248.5	1
0	34579	248.500752	0
0	34620	248.73	1
0	34624	248.730752	0
0	34666	248.97	1
0	34670	248.970752	0
0	34716	249.23	1
0	34720	249.230752	0
0	34761	249.46	1
0	34765	249.460752	0
0	34806	249.69	1
0	34810	249.690752	0
0	34854	249.93	1
0	34858	249.930752	0
0	34899	250.16	1
0	34903	250.160752	0
0	34950	250.43	1
0	34954	250.430752	0
0	34996	250.67	1
0	35000	250.670752	0
0	35043	250.9	1
0	35047	250.900752	0
0	35089	251.14	1
0	35093	251.140752	0
0	35134	251.37	1
0	35138	251.370752	0
0	35185	251.64	1
0	35189	251.640752	0
0	35230	251.87	1
0	35234	251.870752	0
0	35277	252.1	1
0	35281	252.100752	0
0	35328	252.34	1
0	35332	252.340752	0
0	35378	252.57	1
0	35382	252.570752	0
0	35434	252.84	1
0	35438	252.840752	0
0	35484	253.07	1
0	35488	253.070752	0
0	35537	253.31	1
0	35541	253.310752	0
0	35588	253.55	1
0	35592	253.550752	0
0	35638	253.78	1
0	35642	253.780752	0
0	35693	254.04	1
0	35697	254.040752	0
0	35744	254.28	1
0	35748	254.280752	0
0	35797	254.52	1
0	35801	254.520752	0
0	35847	254.75	1
0	35851	254.750752	0
0	35897	254.98	1
0	35901	254.980752	0
0	35953	255.25	1
0	35957	255.250752	0
0	36004	255.49	1
0	36008	255.490752	0
0	36056	255.72	1
0	36060	255.720752	0
0	36106	255.95	1
0	36110	255.950752	0
0	36157	256.19	1
0	36161	256.190752	0
0	36213	256.46	1
0	36217	256.460752	0
0	36263	256.69	1
0	36267	256.690752	0
0	36315	256.92	1
0	36319	256.920752	0
0	36366	257.16	1
0	36370	257.160752	0
0	36422	257.43	1
0	36426	257.430752	0
0	36472	257.66	1
0	36476	257.660752	0
0	36525	257.9	1
0	36529	257.900752	0
0	36575	258.13	1
0	36579	258.130752	0
0	36625	258.36	1
0	36629	258.360752	0
0	36681	258.63	1
0	36685	258.630752	0
0	36731	258.86	1
0	36735	258.860752	0
0	36784	259.1	1
0	36788	259.100752	0
0	36835	259.34	1
0	36839	259.340752	0
0	36886	259.58	1
0	36890	259.580752	0
0	36941	259.84	1
0	36945	259.840752	0
0	36992	260.08	1
0	36996	260.080752	0
0	37044	260.31	1
0	37048	260.310752	0
0	37094	260.54	1
0	37098	260.540752	0
0	37144	260.77	1
0	37148	260.770752	0
0	37200	261.04	1
0	37204	261.040752	0
0	37250	261.27	1
0	37254	261.270752	0
0	37303	261.51	1
0	37307	261.510752	0
0	37354	261.75	1
0	37358	261.750752	0
0	37404	261.98	1
0	37408	261.980752	0
0	37460	262.25	1
0	37464	262.250752	0
0	37510	262.48	1
0	37514	262.480752	0
0	37563	262.72	1
0	37567	262.720752	0
0	37613	262.95	1
0	37617	262.950752	0
0	37663	263.18	1
0	37667	263.180752	0
0	37719	263.45	1
0	37723	263.450752	0
0	37770	263.69	1
0	37774	263.690752	0
0	37822	263.92	1
0	37826	263.920752	0
0	37873	264.16	1
0	37877	264.160752	0
0	37923	264.39	1
0	37927	264.390752	0
0	37979	264.66	1
0	37983	264.660752	0
0	38028	264.88	1
0	38032	264.880752	0
0	38081	265.12	1
0	38085	265.120752	0
0	38131	265.35	1
0	38135	265.350752	0
0	38182	265.59	1
0	38186	265.590752	0
0	38238	265.86	1
0	38242	265.860752	0
0	38291	266.1	1
0	38295	266.100752	0
0	38341	266.33	1
0	38345	266.330752	0
0	38392	266.57	1
0	38396	266.570752	0
0	38445	266.81	1
0	38449	266.810752	0
0	38499	267.08	1
0	38503	267.080752	0
0	38551	267.31	1
0	38555	267.310752	0
0	38601	267.54	1
0	38605	267.540752	0
0	38651	267.77	1
0	38655	267.770752	0
0	38703	268	1
0	38707	268.000752	0
0	38757	268.27	1
0	38761	268.270752	0
0	38810	268.51	1
0	38814	268.510752	0
0	38861	268.75	1
0	38865	268.750752	0
0	38911	268.98	1
0	38915	268.980752	0
0	38964	269.22	1
0	38968	269.220752	0
0	39017	269.48	1
0	39021	269.480752	0
0	39065	269.71	1
0	39069	269.710752	0
0	39115	269.94	1
0	39119	269.940752	0
0	39166	270.18	1
0	39170	270.180752	0
0	39218	270.41	1
0	39222	270.410752	0
0	39272	270.68	1
0	39276	270.680752	0
0	39325	270.92	1
0	39329	270.920752	0
0	39376	271.16	1
0	39380	271.160752	0
0	39426	271.39	1
0	39430	271.390752	0
0	39479	271.63	1
0	39483	271.630752	0
0	39532	271.89	1
0	39536	271.890752	0
0	39585	272.13	1
0	39589	272.130752	0
0	39635	272.36	1
0	39639	272.360752	0
0	39685	272.59	1
0	39689	272.590752	0
0	39737	272.82	1
0	39741	272.820752	0
0	39791	273.09	1
0	39795	273.090752	0
0	39844	273.33	1
0	39848	273.330752	0
0	39895	273.57	1
0	39899	273.570752	0
0	39948	273.81	1
0	39952	273.810752	0
0	40001	274.07	1
0	40005	274.070752	0
0	40054	274.31	1
0	40058	274.310752	0
0	40104	274.54	1